
BORN	"Q8?Q8?%Q8?-Q8?0v"5?5?%5?-5?0d"/4?/4?%/4?-/4?0'"333?333?%333?-333?0	"f4?f4?%f4?-f4?0d"5?5?%5?-5?0'"333?333?%333?-333?0d"5?5?%5?-5?0"ף0?ף0?%ף0?-ף0?0d"ף0?ף0?%ף0?-ף0?0"5?5?%5?-5?0"5?5?%5?-5?0"5?5?%5?-5?0d"5?5?%5?-5?0"5?5?%5?-5?0f"؁3?؁3?%؁3?-؁3?0"6?6?%6?-6?0"y7?5?%y7?-5?0"Q8?5?%Q8?-5?0'"Z3?Z3?%Z3?-Z3?0d"	^K8?^K8?%^K8?-^K8?0