
BORNÉÞÏ	"ö33“?33“?%33“?-33“?0¥"û33“?33“?%33“?-33“?0d"À33“?33“?%33“?-33“?0d"ÁøS“?øS“?%øS“?-øS“?0À"ÿ33“?33“?%33“?-33“?0d"ã	33“?33“?%33“?-33“?0È"ë	33“?33“?%33“?-33“?0d