
BORN	"г9?г9?%г9?-г9?0d"Q8?Q8?%Q8?-Q8?0	"333?333?%333?-333?0"333?333?%333?-333?0d"Q8?Q8?%Q8?-Q8?0d"5?5?%5?-5?0"p8?p8?%p8?-p8?0d"Q8?Q8?%Q8?-Q8?0#