
BORN£§Π	"φΒ5?Β5?%Β5?-Β5?0‡"Ο΅ψ1?΅ψ1?%΅ψ1?-΅ψ1?0ε
"‹Z4?Z4?%Z4?-Z4?0Π"Άο85?5?%ο85?-5?0¦"£ο85?5?%ο85?-5?0„"¦σβ4?σβ4?%σβ4?-σβ4?0ά"§}?5?Β5?%Β5?-}?5?0λ"ξΧ£0?Χ£0?%Χ£0?-Χ£0?0d"…7‰1?7‰1?%7‰1?-7‰1?0©